LAMMPS data file via write_data, version 23 Jun 2022, timestep = 1500000

4140 atoms
3 atom types
2139 bonds
1 bond types
2138 angles
1 angle types

-10 10 xlo xhi
-10 10 ylo yhi
-17.5 17.5 zlo zhi

Masses

1 1
2 1
3 1

Atoms # angle

2924 0 3 -8.84767854700483 -9.291727047541118 -16.353000732825606 7 1 0
3569 0 3 -9.499024490204718 -5.336461651698157 -16.371059633200797 -2 -6 0
3530 0 3 -5.475573474846052 -6.412061336395262 -16.478706062046964 -13 -4 0
3155 0 3 -7.125677041790562 -8.995559109339503 -15.783367582893336 8 5 0
2997 0 3 -5.069335305171088 -9.456652653851881 -16.079883644126923 -13 0 0
2887 0 3 -8.017398061130645 -8.113713571838503 -15.641703378709357 -5 11 0
1126 18 1 -8.813652172568288 -6.921593402349138 -15.138471717629404 0 1 0
2235 0 3 -8.13524557639312 -6.984642247028124 -16.04165046055391 6 -13 0
3986 0 3 -7.1618018812564275 -7.28425914585885 -15.452010303354507 0 -1 0
3837 0 3 -8.453919654162783 -5.83752115505741 -16.05734480471244 1 1 0
2836 0 3 -7.437309666056818 -6.088619612112861 -16.01763998073158 2 -9 0
1110 18 1 -6.065082801749915 -9.176301704652223 -14.11158831602078 0 1 0
1111 18 1 -6.009294268266826 -9.377711846789866 -15.058260274711543 0 1 0
1112 18 1 -5.158816851488085 -9.495984365477115 -14.700683926706054 0 1 0
1124 18 1 -9.258686609585787 -8.263692921126937 -13.956192377775432 0 1 0
3548 0 3 -7.377128904001865 -7.814027312333279 -14.125431288069855 -10 -1 0
1125 18 1 -8.962840690870117 -7.313150888906676 -14.277292586380899 0 1 0
1379 18 1 -8.157926529005282 -6.767610018010776 -13.915754249446445 0 0 0
1377 18 1 -6.828344429145389 -6.772803428267141 -13.971380532451288 0 0 0
2668 0 3 -5.254194774745521 -6.9534485614129835 -14.253687032048099 10 4 0
1127 18 1 -8.606664020056622 -6.030676573943416 -14.844464113840422 0 1 0
886 18 2 -9.516240701637631 -9.903951389909228 -13.503464711490855 0 0 0
1122 18 1 -8.355734429669186 -8.846560231914829 -12.786891746732175 0 1 0
1121 18 1 -7.558346865039086 -9.370961656894545 -12.767105539574496 0 1 0
3133 0 3 -6.207961704331018 -9.167355921532483 -12.857059508694546 -6 -13 0
1123 18 1 -8.378908127715974 -8.433898112510366 -13.642573597236591 0 1 0
3118 0 3 -5.609736923665541 -8.379590360900183 -13.351699647474677 -1 6 0
1381 18 1 -7.5379964427378745 -6.930306567727356 -12.754168003857899 0 0 0
1380 18 1 -8.455334255072652 -6.906393343754617 -13.021858951008774 0 0 0
1376 18 1 -5.9019033409307955 -6.485192341553812 -13.7424251715534 0 0 0
1378 18 1 -7.512473272515019 -6.1251788738598005 -13.6083833371619 0 0 0
1375 18 1 -6.468723586486249 -5.653563334849805 -13.792092546993636 0 0 0
1120 18 2 -7.497715559395658 -9.928947492433045 -12.04004763212099 0 1 0
1117 18 1 -5.882728331081182 -9.654851196822296 -11.957940328357994 0 1 0
1116 18 1 -5.284200037784677 -9.773271467883978 -12.713886131565882 0 1 0
2337 0 3 -6.041345067116553 -8.242918204048202 -12.077376721130099 1 -7 0
1139 18 1 -9.556071270659523 -6.763430192820503 -12.233867432982128 0 1 0
2796 0 3 -8.270657220351099 -7.472179979648063 -11.748916489224776 2 -9 0
1137 18 2 -9.61056143859305 -5.345272858695465 -12.05804368893971 0 1 0
1138 18 2 -9.549880107502078 -6.151540117545665 -11.471424983543075 0 1 0
2964 0 3 -8.231465833847501 -6.1570647750742316 -12.353981892719691 14 -5 0
1382 18 1 -6.990457418889036 -6.13560438703376 -12.532290413458028 0 0 0
1383 18 1 -6.093943554289136 -5.767929888971061 -12.222743590094508 0 0 0
890 18 1 -9.887586812531595 -9.732084760420692 -10.588264048800584 0 0 0
891 18 1 -9.091684843462305 -9.696136822144412 -11.17524191416559 0 0 0
893 18 2 -8.345869594002886 -8.89440341257627 -10.199511398935135 0 0 0
892 18 1 -8.426535699802143 -9.016677413341728 -11.134488438911278 0 0 0
1118 18 2 -6.350295142257155 -9.748847763337766 -11.123348640212766 0 1 0
831 18 1 -9.931967689278405 -8.51905046410529 -11.190207638600917 0 0 0
832 18 1 -9.293016255825371 -8.516563304092932 -10.484583287035528 0 0 0
2830 0 3 -8.379785253790503 -6.724730050367897 -11.087360834781988 1 4 0
3695 0 3 -6.470089904184028 -7.320514073366882 -11.028910366425656 -1 -2 0
2754 0 3 -9.82314712320611 -6.3623358323539545 -10.371303895638727 8 8 0
3413 0 3 -8.272401596439577 -5.569011569916705 -10.686834882733692 1 8 0
2929 0 3 -6.745002877671454 -5.625678471394524 -11.230215954540652 4 -6 0
894 18 2 -8.820629618543746 -9.581239280217547 -9.732629053068486 0 0 0
895 18 1 -8.003936000918603 -9.959145807326534 -9.37423302124328 0 0 0
833 18 2 -9.366454418475575 -7.732618352882563 -9.954660801634976 0 0 0
3840 0 3 -6.722148490613185 -7.859460364246051 -9.981261342991901 2 -1 0
2459 0 3 -5.515010543700178 -8.687788429137546 -9.445933057580195 -1 -7 0
834 18 1 -9.195454838845038 -7.002707942720878 -9.286721716863557 0 0 0
840 18 1 -7.4533121516135985 -6.486237009138259 -9.385178453334817 0 0 0
841 18 1 -6.923455322030186 -7.175399955904561 -9.031926214136737 0 0 0
3899 0 3 -8.531756881901163 -5.5800217516556065 -8.990376892043763 -12 8 0
839 18 1 -7.319405722697765 -5.819206586535663 -8.738693637130785 0 0 0
2884 0 3 -1.0749354125610462 -9.52487467524496 -16.468084090692656 8 8 0
2745 0 3 -4.190371136339781 -8.87410552886645 -15.320307862861139 -3 5 0
3649 0 3 -2.2673781469715846 -9.13084367058332 -15.984539732454754 6 -12 0
3868 0 3 -0.5854473565180934 -9.800814282458848 -15.429281427928025 5 -3 0
2247 0 3 -0.7849836705571109 -8.395343232069928 -15.884328794800146 3 3 0
3602 0 3 -4.535482954991859 -7.5948944063874375 -16.111180472059 -9 14 0
3254 0 3 -3.3766855502299338 -6.996271370369398 -15.40513778211661 -11 0 0
2956 0 3 -1.8573517733309606 -6.7539597983120245 -15.843701858424243 4 8 0
3780 0 3 -0.14669131973420788 -7.007017005574669 -16.053337423363825 -3 -8 0
3689 0 3 -3.767872598356791 -5.827478132232842 -16.082608211901952 -2 7 0
2807 0 3 -1.3014030156870846 -5.626163112679516 -15.91750429912607 3 -13 0
1114 18 1 -3.8701697065592704 -9.361317809593658 -13.98478842695894 0 1 0
3261 0 3 0.1382502038718842 -9.105044737898961 -13.690688831243543 6 8 0
1364 18 1 -4.463845040959561 -7.687553112597543 -13.556451903441625 0 0 0
1113 18 1 -4.632316385784612 -8.779633991549996 -14.202692321477024 0 1 0
3078 0 3 -1.960845839596763 -8.086350065258587 -14.758180614675387 3 0 0
1365 18 1 -4.1860159795687615 -6.886803093928957 -14.056103357516083 0 0 0
2383 0 3 -2.4777522902304607 -6.7170570492618875 -13.685770607845988 -7 -4 0
3973 0 3 -3.0778051191003883 -6.590838653922802 -14.48728437021516 -5 -6 0
2945 0 3 -0.26809929737235755 -7.5120079233542185 -13.87023073983588 -3 10 0
1366 18 1 -4.573929985630845 -5.9213319096844605 -13.834680205455077 0 0 0
1367 18 1 -4.7801343635322615 -5.491635658752056 -14.683221047889438 0 0 0
1115 18 1 -4.562754788324866 -9.790589764956607 -13.469766238359393 0 1 0
3905 0 3 -3.0164763047616736 -8.875922549444882 -13.031004582540852 -1 5 0
3688 0 3 -4.150905822069139 -8.457703961145121 -12.264112474693148 -6 8 0
1342 18 1 0.1148439510229983 -7.897241207763979 -12.717668303628237 0 0 0
1361 18 1 -4.070429306126787 -6.632402246377391 -12.76943988002541 0 0 0
1363 18 1 -4.979905504872374 -7.295603940399841 -12.87084089187196 0 0 0
1359 18 1 -2.7162850155460028 -7.0889933141132 -12.371510409865092 0 0 0
1341 18 1 -0.44218684574246997 -7.214191559158121 -12.330111944115078 0 0 0
3791 0 3 -3.5655296270933996 -5.604197113283225 -13.343223183477408 -5 0 0
1340 18 2 -0.4211252331913972 -6.256383336257987 -12.369669264243196 0 0 0
1339 18 2 0.14064614486137478 -5.468851085139227 -12.332050587690988 0 0 0
2788 0 3 -4.069919246912313 -9.820449321639579 -11.995957897493021 -2 8 0
2930 0 3 -4.418217220977918 -8.311726428121926 -11.32597974659421 -13 8 0
2159 0 3 -2.640043617498833 -8.360920265589995 -11.670920680173024 3 0 0
3082 0 3 -1.4530413905606845 -8.677361693393237 -11.663149320380288 7 2 0
3519 0 3 -0.1482776511674867 -8.329649508004003 -11.387153925950484 -3 4 0
1362 18 1 -4.558365540104533 -7.099083629258536 -12.041347475808019 0 0 0
1360 18 1 -3.4040690341445434 -6.434139474398208 -12.143964188586724 0 0 0
1356 18 1 -2.0343377976148673 -6.435232848643753 -11.183790939103083 0 0 0
1357 18 1 -1.3883513985519684 -7.087452812382826 -11.632844016650793 0 0 0
1358 18 1 -1.903503792726835 -6.536002189017852 -12.214118203711632 0 0 0
3412 0 3 0.3071369132606854 -6.612047375332589 -11.090274288227306 -1 -3 0
3084 0 3 -4.629483198035374 -9.79838466198817 -10.465084774370787 11 12 0
916 18 2 -2.3730415511263367 -9.535217655539013 -10.22162225459086 0 0 0
917 18 2 -1.5994701608992135 -9.024769508074918 -10.347484685881104 0 0 0
915 18 1 -1.9108452949768868 -9.879827808681325 -11.008921578499587 0 0 0
1351 18 2 -0.07270678641665335 -7.641876067915832 -10.067303119362645 0 0 0
3558 0 3 -3.9241400240833144 -7.300098837370475 -10.79482906694122 -10 0 0
1354 18 1 -2.19090662410961 -7.478566233990053 -10.256104060946708 0 0 0
1355 18 1 -1.800015185920892 -6.558912187141023 -10.280974844194672 0 0 0
1352 18 2 -1.0080223810460098 -7.594763883911546 -10.42112276642561 0 0 0
1337 18 1 0.3623460656338177 -5.294996413013538 -10.666100313161603 0 0 0
919 18 1 -1.67841106448844 -9.764145270151834 -9.258254947970254 0 0 0
918 18 2 -0.9009118763311211 -9.341505335727469 -9.770338920038295 0 0 0
2188 0 3 -3.3644753500398115 -8.399369639130335 -9.668149356189614 6 -7 0
4070 0 3 0.3530147512206757 -8.277049358095804 -9.265366563294902 -12 -8 0
3945 0 3 -3.442208383751077 -7.292259397882679 -9.682143671354828 9 3 0
3681 0 3 -2.4375785301707045 -7.330010592191408 -8.822450196976545 -7 18 0
3539 0 3 -1.336923382295577 -6.450054568546251 -8.9179481044318 -3 -9 0
1353 18 2 -1.5006709736063797 -7.4828235529355736 -9.55090395405163 0 0 0
2231 0 3 -4.545420046470679 -5.956956798172154 -9.43517139000352 -10 -3 0
4035 0 3 -1.7282749171528446 -5.398862760230267 -9.82596185814623 -1 5 0
3800 0 3 -0.5326262579629137 -5.401988913404344 -9.72785879008145 -7 3 0
1369 18 1 -6.419559618698409 -4.902683227328535 -15.384109418075433 0 0 0
1371 18 1 -6.333715425308422 -3.4554920534579674 -15.15696867556174 0 0 0
2520 0 3 -6.377613530885272 -3.6714843316239776 -16.250688691140823 -1 0 0
3659 0 3 -8.51402329179702 -2.20365901052475 -15.635705500173405 7 11 0
2926 0 3 -7.380988531086977 -1.95603674869018 -16.09131129275362 1 -1 0
3901 0 3 -5.946659835991495 -2.5561802720594726 -16.137818022776422 17 7 0
2775 0 3 -9.841517735479187 -1.2756800319533448 -16.026195259477483 -7 10 0
3692 0 3 -7.910724082668495 -0.5854527869105611 -16.113846121162638 12 2 0
2306 0 3 -5.8586565958301975 -1.0267841255644137 -16.292112998210364 4 3 0
1130 18 2 -9.733913703078352 -4.515355334493776 -14.186374466890614 0 1 0
1129 18 2 -9.22372353756161 -4.830754225372196 -14.944584800515766 0 1 0
1128 18 1 -8.33011780709871 -5.153302486966328 -14.66626096344827 0 1 0
1370 18 1 -6.7822679228441585 -4.220638433793586 -14.836723566218673 0 0 0
2910 0 3 -7.53811593248616 -5.10244453586338 -14.0230478648916 1 -3 0
1372 18 1 -6.3745570295764376 -3.2511524615005105 -14.187062890771651 0 0 0
2582 0 3 -9.118480698170865 -2.501920290286631 -14.531695620536762 8 1 0
3245 0 3 -7.644485095441194 -2.311797105932728 -14.8361293042487 -4 4 0
3197 0 3 -8.954698457777482 -0.6674596509918423 -14.679929957455782 -5 -5 0
2915 0 3 -7.300324279558265 -0.9685157900261805 -14.410438569698439 2 0 0
3230 0 3 -5.875027540554731 -0.4618478527428422 -14.569736836472968 -15 -10 0
1132 18 2 -9.1985594874525 -4.456859575103277 -13.179780182211195 0 1 0
1131 18 2 -9.256959618994472 -5.224050088404767 -13.699998301042612 0 1 0
1133 18 2 -8.439306027211904 -4.09078251788452 -13.799299432358177 0 1 0
2441 0 3 -6.781760742604954 -4.507831401223857 -12.974491497774235 -4 -12 0
1373 18 1 -6.281880402831718 -4.022166043083911 -13.751752124996967 0 0 0
1374 18 1 -5.9190847551743575 -4.878762506619246 -13.795835353251853 0 0 0
1134 18 1 -8.16022943862909 -3.636740676777186 -12.978523907312011 0 1 0
4048 0 3 -8.325879579910191 -1.438425955337567 -13.87587039255431 6 -6 0
813 18 1 -7.530174130924797 -2.327198565566859 -13.033463391416358 0 0 0
812 18 2 -6.770333865671851 -1.7826894456832756 -12.800742400142564 0 0 0
2418 0 3 -6.3614715091351615 -2.031210950597284 -13.676741743232384 3 -7 0
811 18 2 -6.830827213958077 -0.8626894224983157 -13.052605085135236 0 0 0
4032 0 3 -5.945978641797292 -0.35495308881421617 -13.56207072289227 12 -3 0
1136 18 2 -9.072492539155812 -4.58585779865872 -12.094642052791835 0 1 0
1135 18 1 -8.257711045358791 -4.543314711060582 -12.699808764584867 0 1 0
1384 18 1 -6.038806696256914 -4.839270628709774 -12.053114068726243 0 0 0
815 18 1 -7.872938096916687 -2.8750608021478117 -11.713433995925863 0 0 0
814 18 1 -7.016891461659141 -2.748259860493695 -12.279106657452383 0 0 0
2316 0 3 -9.87899107192234 -2.382220536884258 -11.478318149921137 5 1 0
3343 0 3 -5.765208010019645 -2.188416551664534 -11.47695682877581 5 -3 0
3351 0 3 -8.880500034839695 -1.3005674379996954 -12.045286610153246 -6 4 0
2281 0 3 -8.44684903216139 -0.2608022276070028 -11.436462464021094 7 -1 0
809 18 1 -6.433052978181326 -0.6283059879757681 -11.585503217561362 0 0 0
810 18 1 -6.05679732268806 -0.7002860454256499 -12.492312904385683 0 0 0
821 18 1 -9.86100940025289 -4.831364185382043 -11.031590549540192 0 0 0
820 18 2 -9.431792228438152 -4.838293809895563 -10.210963382523511 0 0 0
1385 18 1 -5.635633886387565 -4.587631994592623 -11.119934539699834 0 0 0
817 18 1 -9.020866747735463 -3.0515111728741235 -10.549899819272962 0 0 0
3435 0 3 -9.415777175369966 -3.808352741475247 -11.152863355291245 -2 3 0
3953 0 3 -6.095110122799844 -2.887924004676617 -10.028182041925623 -4 7 0
816 18 1 -8.636371040792486 -2.55813482942542 -11.284982496911683 0 0 0
2156 0 3 -7.227263159839516 -2.397722542102667 -10.433709499147236 8 -8 0
3457 0 3 -9.970471085018472 -0.32429638647169107 -10.588463718403483 -3 0 0
3206 0 3 -7.8702602293972 -0.9985084005081574 -10.688846583156915 -4 -6 0
3023 0 3 -5.658593066999197 -0.2227790080844809 -10.673192024144456 8 0 0
819 18 2 -9.32754892576068 -4.029326244194925 -9.659762328719657 0 0 0
4064 0 3 -8.160274404144639 -4.3619720706941365 -9.76689178348396 1 1 0
2219 0 3 -7.821554661300818 -4.062729241356046 -8.791767886302832 5 10 0
2975 0 3 -7.056753804155038 -4.148848154603832 -9.965384388119764 -1 4 0
2185 0 3 -6.665456298986521 -5.152502426397043 -9.631541358544167 7 6 0
818 18 1 -9.107238026888856 -3.103917233890046 -9.553814354180396 0 0 0
3662 0 3 -8.48228752313466 -2.2743173282583746 -9.363274667721411 10 5 0
3988 0 3 -7.663259137158683 -1.6841957462979522 -9.047318479361627 -1 -3 0
2712 0 3 -8.99605558427906 -0.23741749017991387 -8.998002800808468 -6 -2 0
3294 0 3 -4.749977596008026 -2.956898803134397 -16.350558314476004 -9 4 0
3996 0 3 -1.664197761642713 -0.3766136458048663 -16.379524381146272 6 7 0
1368 18 1 -5.430709200713385 -5.221428755832442 -15.354858324535178 0 0 0
2502 0 3 -1.185610221617438 -4.801987405965321 -15.295483739822766 5 6 0
2590 0 3 -1.5812898781918785 -3.560725344738003 -15.385401665275275 5 7 0
2210 0 3 -3.220653348489284 -2.1665277923498754 -15.52129482220354 0 3 0
2927 0 3 -2.26467672322062 -2.066418491728159 -16.195428841727246 1 4 0
1395 18 2 -4.324874864670713 -0.5316774943961329 -15.065861567139391 0 0 0
1394 18 2 -4.057254925718089 -1.1900050359558858 -15.738083968471622 0 0 0
3295 0 3 -2.852539586115238 -1.0055098072892823 -15.788649264224437 1 -4 0
2818 0 3 -2.5131108987296353 -4.36630286376269 -14.30515718633348 -3 -5 0
1438 18 1 -0.1104354765679884 -4.265809857028379 -14.608902158072546 0 0 0
1437 18 1 -0.7138622960254284 -4.518222016233801 -13.886354473364277 0 0 0
1390 18 2 -4.365182393034141 -2.845700055978685 -13.960285971301344 0 0 0
1389 18 1 -5.23111970603109 -3.3146907240166823 -13.975578569073456 0 0 0
1391 18 2 -3.7713621211823845 -3.243524749620314 -14.664806107305724 0 0 0
4137 0 3 -1.5878258176603084 -2.898664504908723 -14.175673318189931 -5 3 0
3123 0 3 -0.3278324193609832 -2.7291648570202063 -13.91914986588957 7 0 0
1392 18 2 -4.3287663911272976 -2.5530484315924635 -15.012544927330206 0 0 0
1393 18 1 -4.094217509679837 -1.586638106079211 -14.871498574446045 0 0 0
4129 0 3 -0.2847924204962755 -1.7492187669126849 -14.369155393807466 -2 -3 0
3555 0 3 -5.388078375291201 -1.2873158374948146 -13.835080944737177 -13 1 0
2983 0 3 -1.8564809188638425 -1.3186707760187124 -14.751544935105429 -1 -5 0
1435 18 1 -1.533295285202416 -4.06165785783299 -13.4031033729093 0 0 0
1436 18 1 -1.3838045449048617 -4.999215249088318 -13.497324360628548 0 0 0
1388 18 1 -5.394755937264232 -3.951395517549995 -13.35504929258063 0 0 0
2167 0 3 -3.988344613543766 -3.7194786363440415 -13.44705788509289 12 7 0
2165 0 3 -2.5776297786272204 -2.8146625838148065 -13.461373132587697 -6 1 0
3619 0 3 -2.843885150617553 -3.698461482239926 -13.034411845112755 -1 -6 0
1434 18 1 -1.0957064416599331 -3.570612310807342 -12.687278003050096 0 0 0
4047 0 3 -4.141545493918838 -1.6419355597966108 -13.052682420170834 5 0 0
3111 0 3 -2.7051852807462895 -0.360969764356017 -13.442515605068246 4 1 0
1387 18 1 -5.175513662970289 -4.387272729094897 -12.486617972937601 0 0 0
1386 18 1 -4.822877839068289 -4.440964960657723 -11.582938860216606 0 0 0
2559 0 3 -3.789866346794061 -4.1782724779672495 -11.612814330997773 -1 1 0
4112 0 3 -4.25243388813243 -4.925620895651918 -12.557212937047446 0 -1 0
3200 0 3 -2.008157235910609 -5.022663011971228 -12.182241828053321 -4 -8 0
1432 18 2 -0.7825847508049513 -4.391951527106403 -11.777092506233567 0 0 0
1433 18 1 -0.3237654360000637 -4.15425040784259 -12.551773249507718 0 0 0
1338 18 2 0.14660812616106422 -4.852917340352159 -11.56121246753422 0 0 0
2882 0 3 -2.743882001800527 -3.7260076625232186 -11.502330582186778 2 -5 0
4018 0 3 -2.774187935683318 -2.463017017045067 -12.450647808777013 4 -8 0
3072 0 3 -1.3225188533145111 -1.9899209048220912 -11.270973141069858 -9 -7 0
2432 0 3 0.33199319735204685 -2.6252243077214388 -11.285924996114103 -1 0 0
3108 0 3 -3.305613834236697 -1.262139794699545 -12.379038512030176 0 -3 0
2568 0 3 -2.605890521233975 -1.2272428232724615 -11.442115178754218 -2 -4 0
2269 0 3 -3.4337563435151273 -4.1328730141833985 -10.40967838158436 4 8 0
2622 0 3 -1.9694040935762238 -4.401381793681431 -10.83666286608312 2 -6 0
1431 18 2 -0.6439846720890078 -3.668153779076894 -11.135791257594398 0 0 0
1430 18 1 -0.2583693463805981 -3.6366878473212068 -10.257045474310862 0 0 0
2716 0 3 -3.593078114813462 -1.6895894282895525 -10.76255078350329 4 1 0
2906 0 3 -2.1132919932749425 -2.487506599906104 -10.413939045709153 0 0 0
1425 18 1 -0.2381655850749934 -1.9534922687577159 -10.046840531164966 0 0 0
3089 0 3 -3.0657808434832723 -0.2620129595772018 -10.896386148814418 -1 10 0
3585 0 3 -1.8777198458661897 -0.3668302543193942 -11.166915051881926 12 -5 0
2460 0 3 -0.9899292937270925 -0.4089176620725196 -10.337377195921675 -6 4 0
2323 0 3 -2.7809617294514477 -2.87343949231366 -9.318254586142631 -4 -11 0
1428 18 1 -1.2788559480739425 -2.864227029513221 -9.403494142603611 0 0 0
1429 18 1 -0.384739616436444 -3.051355569786316 -9.603525967097575 0 0 0
2307 0 3 -4.706534684779276 -2.159019749350608 -8.985706599519379 -1 2 0
2811 0 3 -2.1320008137271893 -1.7654861443941474 -9.181201126413619 -3 6 0
1426 18 2 -1.160472236895966 -1.7027363875891823 -9.652428097330146 0 0 0
1427 18 1 -0.800557092624515 -2.1698161109283567 -8.890669184248003 0 0 0
4022 0 3 -0.4934668189420896 -0.5760360594464146 -9.198126158000768 -3 0 0
897 18 1 -8.933972642336322 -9.971007394184392 -8.246263328925355 0 0 0
3380 0 3 -9.042450700405018 -8.780450311492372 -8.627880909605228 4 2 0
896 18 1 -8.116226738760647 -9.559328297097625 -8.558342636311343 0 0 0
3528 0 3 -6.463023063016349 -9.286532000733581 -8.369989349311691 4 -1 0
3110 0 3 -5.666174381332059 -8.371381303023957 -8.436710819740984 3 3 0
572 18 1 -9.997134477552768 -7.373918554227745 -7.7659287844155624 0 0 0
835 18 1 -9.1225838629376 -6.679020231332555 -8.345692681059358 0 0 0
844 18 1 -6.192205666116593 -6.52891480492052 -7.255809512503769 0 0 0
842 18 1 -7.074879009374452 -7.200829357886829 -8.036470455904071 0 0 0
843 18 1 -6.189766013924702 -6.888099415348395 -8.121545726314885 0 0 0
836 18 1 -8.369573255771645 -6.188554532386849 -7.883681044830895 0 0 0
837 18 1 -8.00819191399841 -5.34342188437867 -7.768846427699376 0 0 0
838 18 1 -7.124989296253176 -5.608788199850543 -7.80130478940903 0 0 0
2909 0 3 -9.002597716612181 -8.955222963993302 -6.242523497770917 -11 -1 0
854 18 1 -7.726361965027606 -9.327574649632101 -5.967610262945016 0 0 0
853 18 1 -7.853340573604493 -9.577217034213216 -6.865861540159433 0 0 0
2738 0 3 -8.635489738473614 -9.946098911636648 -6.372585246506886 -7 4 0
852 18 1 -7.283513582923843 -8.790226896863752 -7.170424734520551 0 0 0
851 18 1 -7.944537033291226 -8.1696630352719 -6.7909905422360035 0 0 0
3753 0 3 -6.014645312427287 -8.512122099750332 -6.80311151770808 1 -10 0
849 18 1 -8.603577718527124 -7.321735497714516 -6.7338266803148175 0 0 0
850 18 1 -7.583521075197817 -7.296835184519595 -6.995106212421709 0 0 0
848 18 1 -7.9919710059843965 -6.6435167686377365 -6.373910839525904 0 0 0
845 18 1 -6.210183907064236 -7.200798026464896 -6.632159971248157 0 0 0
847 18 1 -7.1968229307539335 -6.349894354219552 -5.8994269102261585 0 0 0
2729 0 3 -9.989220328943345 -5.784635325564762 -6.300400996866038 -2 -4 0
2896 0 3 -8.228252312278453 -9.87820739957362 -4.80791705241086 7 -7 0
2533 0 3 -6.2224069369070305 -8.756405229809348 -5.64741490357714 -7 8 0
660 18 1 -6.021271631883702 -8.438525914399447 -4.450996672117985 0 0 0
846 18 1 -6.47532529764748 -6.99786741171659 -5.684254298005124 0 0 0
3169 0 3 -6.0722870408482335 -5.6573878100674735 -4.7410503333627405 -1 8 0
658 18 1 -6.27683584086976 -9.26330561010033 -3.380893023752055 0 0 0
2414 0 3 -6.898355207027165 -9.986208766188936 -4.103403759513329 4 2 0
659 18 1 -5.600912985423481 -9.193823541254382 -4.056907933986592 0 0 0
4023 0 3 -4.888909297911337 -9.90136846744217 -3.762368113546936 -1 5 0
2351 0 3 -7.460770994143735 -8.503782221854335 -3.1480886030426056 1 1 0
2677 0 3 -5.418248072621479 -8.054974558037557 -3.0455578615329566 -7 6 0
661 18 1 -5.3010307788310405 -7.842859482731437 -4.269399156286992 0 0 0
2753 0 3 -9.1152316373874 -7.325950938565421 -3.430137079943318 -9 -4 0
2789 0 3 -9.736402411024983 -6.703668084343303 -4.3077166301954115 -2 2 0
2524 0 3 -6.138065280067802 -6.65093170232821 -3.318839957270057 -3 4 0
3112 0 3 -8.907143060167215 -6.06917158380889 -3.027277608525938 -5 -8 0
3342 0 3 -7.795007567757894 -5.775400746373691 -4.104391527781698 -2 -3 0
653 18 1 -8.97121351208355 -9.607466182366846 -2.489746284428669 0 0 0
2730 0 3 -9.842816229675657 -9.266044402901889 -1.8942642875586182 -2 -8 0
657 18 2 -7.00613089336824 -9.438242270991074 -2.75912352328485 0 0 0
2324 0 3 -5.782825944867318 -9.418262221091478 -1.9976473054119679 -7 -5 0
3176 0 3 -8.300783351107091 -7.785861789351933 -2.748781362185269 0 1 0
3001 0 3 -6.445233767316271 -8.544977162321358 -1.9706062422971402 0 -4 0
2010 18 1 -7.5215492495724074 -5.485893012418222 -1.5522581972182823 1 0 0
2011 18 1 -7.963191960988687 -5.380060305067495 -2.46124292819838 1 0 0
2009 18 1 -6.7059669476700625 -5.116115369459251 -1.7545630641244767 1 0 0
2549 0 3 -5.798710351364773 -5.699582473571149 -2.66734044705595 5 -5 0
2693 0 3 -5.38325088185121 -5.294325402541079 -1.7434385591463966 -2 1 0
2240 0 3 -9.331070050247872 -9.416432321208664 -0.9478199768263474 1 0 0
2201 0 3 -8.196928439630144 -9.758956285325839 -0.37892796445231325 8 -13 0
3535 0 3 -7.380132472977922 -9.123493008161628 -0.556491282354209 -4 -7 0
3127 0 3 -6.091293496126581 -8.970226271455545 -0.38571001802612837 -1 6 0
3037 0 3 -8.021254096742812 -8.069052021306957 -1.2876094995106833 1 -3 0
2547 0 3 -7.832264359978542 -7.647253130106069 -0.13507725808307214 -4 1 0
3236 0 3 -9.868454524467575 -6.955839026951019 -1.327155843186373 -1 5 0
3310 0 3 -6.6168323174742225 -7.046440456388289 -0.8196419351401584 8 -3 0
2002 18 1 -9.294001675083337 -5.594048071770153 -0.7021607709553433 1 0 0
3920 0 3 -8.042385873856514 -6.206622309828451 -0.8136292165695853 9 4 0
2845 0 3 -5.630923214041672 -5.373576274301257 -0.59576139284018 4 1 0
2911 0 3 -9.839241717493843 -4.905666700978671 -7.348135893554662 -7 -8 0
3381 0 3 -8.699799843235965 -4.238888554272272 -7.3899030983068466 1 -5 0
2238 0 3 -5.417591231024374 -4.577329065213219 -8.150119873781811 -10 -5 0
2553 0 3 -9.836840629315924 -3.7765053780755777 -7.515989531809165 3 -6 0
2713 0 3 -6.153527009349472 -3.0704311362166625 -8.425376353471643 -2 3 0
3041 0 3 -7.139664864524314 -3.6249318057468423 -7.508735415089099 5 3 0
2514 0 3 -7.512330003066393 -2.4601621817415182 -7.320474612174963 0 5 0
2214 0 3 -5.40882724608384 -2.292397635677173 -7.641541481829976 7 -2 0
2403 0 3 -8.644339595032646 -1.2406783472968117 -8.40762239808716 1 4 0
3629 0 3 -7.988000171188323 -0.9884355218381088 -7.386231730218971 -3 -5 0
2998 0 3 -6.98590194647464 -1.3753917656008743 -7.682517723610362 8 4 0
1516 18 1 -9.2278922062526 -2.9016298355649504 -6.036167840514653 1 0 0
1517 18 1 -9.70884444261272 -3.7296532389299872 -6.330504303761697 1 0 0
3808 0 3 -9.410567001386932 -2.245255260484594 -7.087323975618352 3 4 0
3549 0 3 -9.148580345742259 -0.285435642078963 -6.116151750229793 -3 11 0
2028 18 1 -8.194357167433186 -1.3723326579038881 -6.254476721200512 1 0 0
2029 18 1 -7.408397867392441 -0.8532085397124484 -6.509979224784926 1 0 0
2030 18 1 -6.641846033079991 -1.079888382560788 -5.984162893838451 1 0 0
2015 18 1 -9.67560929456426 -4.5213844628592055 -4.637604835391267 1 0 0
2014 18 1 -8.790028174697335 -4.726422386870923 -4.925403508691976 1 0 0
3863 0 3 -7.195159299709526 -4.017345689365998 -5.446032776877605 9 5 0
3843 0 3 -5.582817465943603 -3.973373491985886 -5.2875289227528866 -1 1 0
2017 18 1 -9.638722065954365 -2.6640944345436433 -5.142807652050943 1 0 0
2016 18 1 -9.511635260667193 -3.6198703376659456 -4.950416198824532 1 0 0
1515 18 1 -8.425061760884688 -2.9953515101196997 -5.486092651791268 1 0 0
1514 18 1 -7.743687857701394 -3.2147840614043433 -4.844285945318591 1 0 0
3915 0 3 -6.445440697865919 -2.918837784583183 -4.722792406014075 7 -1 0
2782 0 3 -7.044940390996063 -2.168243187466569 -5.883153181318294 3 -3 0
2026 18 1 -8.400833215449598 -0.3468274694555635 -4.8568319776210105 1 0 0
2027 18 1 -8.651160857472235 -1.1900641460802222 -5.424841610336887 1 0 0
2031 18 1 -7.254604269954665 -0.8602842832949009 -5.3005130148456585 1 0 0
3508 0 3 -5.3770433409584415 -0.25947537013091426 -5.072297868134409 -5 15 0
3796 0 3 -5.22091907841369 -1.3238654213825098 -5.469406018779549 -10 -2 0
2013 18 1 -8.392027020630229 -4.478861080074442 -4.061882774196804 1 0 0
1512 18 1 -9.1543096134206 -3.6449654021048374 -3.727541029835216 1 0 0
1513 18 1 -8.419441121098778 -3.1126265711952343 -4.113463628071734 1 0 0
2019 18 1 -9.73515081896972 -1.5667563489430751 -4.201354043520352 1 0 0
2206 0 3 -6.1741981817038445 -1.572094964651098 -4.602652521265507 -9 3 0
2025 18 1 -8.727058950032474 -1.002325127868883 -4.195376679247695 1 0 0
2707 0 3 -7.435222749624473 -0.9229165760565231 -4.062491811631349 7 -9 0
2627 0 3 -9.034516626110767 -4.839677528764777 -2.5335700888332915 -1 -8 0
2012 18 1 -8.075755436582657 -4.9646469889671705 -3.272282501883754 1 0 0
1511 18 1 -9.07614588862825 -3.5082220268939777 -2.8369597930700965 1 0 0
2020 18 1 -9.285582230549403 -1.7810729580318763 -3.432456308890365 1 0 0
2021 18 1 -9.358523599745102 -0.8214588949824704 -3.0730949867804513 1 0 0
2024 18 1 -8.295787303496825 -0.46317375216444395 -3.4608499222840647 1 0 0
3793 0 3 -5.742591424433172 -4.34875158806897 -2.2264669292015125 -3 4 0
1510 18 1 -9.078167148769506 -2.9493829216781915 -1.8618889043358564 1 0 0
3052 0 3 -7.598627815169564 -3.0500376155137796 -2.0530961454687353 6 6 0
2464 0 3 -6.624717251587032 -2.7145171681980274 -2.3213893822872564 -2 -1 0
2534 0 3 -5.671480768864868 -1.7942720609443301 -1.8452253521933621 -1 -2 0
2935 0 3 -7.080854585814118 -0.5071364282666609 -1.605123743557018 0 -4 0
2003 18 2 -9.152072901957746 -4.706346504914689 -0.9646610512969325 1 0 0
2005 18 1 -8.226798625009293 -4.198963688210346 -1.111799897198297 1 0 0
2008 18 1 -6.469295277040951 -4.925333791789028 -0.8301222805056334 1 0 0
2007 18 1 -7.386549449306171 -4.692249387761472 -0.6646666894709232 1 0 0
2004 18 1 -8.921427218905574 -3.7132585031665384 -0.7364054956738393 1 0 0
2006 18 1 -7.364933205364399 -3.7602011370275803 -0.8997598964011431 1 0 0
2578 0 3 -5.127131310517967 -3.4139689361584677 -0.4222492197824693 -3 -1 0
1509 18 1 -9.456987238542624 -2.4420237087318046 -1.129802850605444 1 0 0
2309 0 3 -7.9506224412484 -1.8208017397558378 -1.1288752150703505 10 -9 0
3630 0 3 -6.981951493022486 -2.1193468240534954 -0.7570854982649181 6 4 0
2463 0 3 -9.975460477767271 -0.7725422841531424 -0.6314333217017329 6 -7 0
3594 0 3 -8.71225141708936 -0.4196043406961114 -1.0373812770414483 3 -3 0
920 18 1 -1.338441819825427 -9.225063281289339 -8.521260309236117 0 0 0
921 18 2 -0.7162841458060117 -9.243484046334164 -7.745702196657756 0 0 0
3216 0 3 -2.863051644337322 -8.587240939881978 -8.669035398018572 1 8 0
3114 0 3 -3.536204861159664 -7.542909614051716 -8.08579209173848 -3 -4 0
3100 0 3 -2.4743644502809365 -6.696262053890376 -7.863966498404291 1 -7 0
3353 0 3 0.3773396113625427 -7.210101134896964 -7.873292966903496 0 0 0
2787 0 3 -3.833427325838292 -6.214259488774543 -8.317138173856367 0 1 0
2708 0 3 -2.9677750036128887 -5.377940309171909 -8.64504958972402 1 -3 0
2970 0 3 0.27043554526538244 -5.1082904873733845 -8.606670285278428 1 9 0
2646 0 3 -4.678064743419722 -9.053557741399665 -6.826471570610237 0 1 0
4126 0 3 -2.6007203351508648 -9.086137826373227 -7.407592403885624 4 -1 0
922 18 2 -0.2002854227050551 -8.931411647050282 -6.993823424920426 0 0 0
3334 0 3 -1.2624461578103003 -7.988159868008675 -7.25692876471973 1 -16 0
664 18 1 -4.097332346241084 -7.369524240218284 -6.500133876492767 0 0 0
4103 0 3 -3.1321554233912363 -7.037368150082734 -6.736693165799077 1 13 0
2505 0 3 -4.665671188668279 -5.628382461985202 -7.279905418337801 -1 -5 0